 TITLE = "rho.tec"
 VARIABLES = "x","y","z","rho"
 ZONE I =           4 ,J=           4 ,K=           4 ,F=POINT
 -0.10000E+01 -0.10000E+01 -0.10000E+01  0.27231E+01
 -0.10000E+01 -0.10000E+01 -0.10000E+01  0.19103E+01
 -0.10000E+01 -0.10000E+01 -0.10000E+01  0.15174E+01
 -0.10000E+01 -0.10000E+01 -0.10000E+01  0.16217E+01
 -0.10000E+01 -0.10000E+01 -0.10000E+01  0.29367E+01
 -0.10000E+01 -0.10000E+01 -0.10000E+01  0.23044E+01
 -0.10000E+01 -0.10000E+01 -0.10000E+01  0.15899E+01
 -0.10000E+01 -0.10000E+01 -0.10000E+01  0.15390E+01
 -0.10000E+01 -0.10000E+01 -0.10000E+01  0.25505E+01
 -0.10000E+01 -0.10000E+01 -0.10000E+01  0.25695E+01
 -0.10000E+01 -0.10000E+01 -0.10000E+01  0.17766E+01
 -0.10000E+01 -0.10000E+01 -0.10000E+01  0.13725E+01
 -0.10000E+01 -0.10000E+01 -0.10000E+01  0.21398E+01
 -0.10000E+01 -0.10000E+01 -0.10000E+01  0.25340E+01
 -0.10000E+01 -0.10000E+01 -0.10000E+01  0.19170E+01
 -0.10000E+01 -0.10000E+01 -0.10000E+01  0.12964E+01
 -0.90787E+00 -0.90787E+00 -0.90787E+00  0.29657E+01
 -0.90787E+00 -0.90787E+00 -0.90787E+00  0.22406E+01
 -0.90787E+00 -0.90787E+00 -0.90787E+00  0.14993E+01
 -0.90787E+00 -0.90787E+00 -0.90787E+00  0.14912E+01
 -0.90787E+00 -0.90787E+00 -0.90787E+00  0.28004E+01
 -0.90787E+00 -0.90787E+00 -0.90787E+00  0.25322E+01
 -0.90787E+00 -0.90787E+00 -0.90787E+00  0.16426E+01
 -0.90787E+00 -0.90787E+00 -0.90787E+00  0.14097E+01
 -0.90787E+00 -0.90787E+00 -0.90787E+00  0.21569E+01
 -0.90787E+00 -0.90787E+00 -0.90787E+00  0.25602E+01
 -0.90787E+00 -0.90787E+00 -0.90787E+00  0.18914E+01
 -0.90787E+00 -0.90787E+00 -0.90787E+00  0.12782E+01
 -0.90787E+00 -0.90787E+00 -0.90787E+00  0.18076E+01
 -0.90787E+00 -0.90787E+00 -0.90787E+00  0.24164E+01
 -0.90787E+00 -0.90787E+00 -0.90787E+00  0.20055E+01
 -0.90787E+00 -0.90787E+00 -0.90787E+00  0.12805E+01
 -0.75880E+00 -0.75880E+00 -0.75880E+00  0.25945E+01
 -0.75880E+00 -0.75880E+00 -0.75880E+00  0.25502E+01
 -0.75880E+00 -0.75880E+00 -0.75880E+00  0.16907E+01
 -0.75880E+00 -0.75880E+00 -0.75880E+00  0.13063E+01
 -0.75880E+00 -0.75880E+00 -0.75880E+00  0.22266E+01
 -0.75880E+00 -0.75880E+00 -0.75880E+00  0.25750E+01
 -0.75880E+00 -0.75880E+00 -0.75880E+00  0.18583E+01
 -0.75880E+00 -0.75880E+00 -0.75880E+00  0.12952E+01
 -0.75880E+00 -0.75880E+00 -0.75880E+00  0.16299E+01
 -0.75880E+00 -0.75880E+00 -0.75880E+00  0.24488E+01
 -0.75880E+00 -0.75880E+00 -0.75880E+00  0.21182E+01
 -0.75880E+00 -0.75880E+00 -0.75880E+00  0.13537E+01
 -0.75880E+00 -0.75880E+00 -0.75880E+00  0.13573E+01
 -0.75880E+00 -0.75880E+00 -0.75880E+00  0.23097E+01
 -0.75880E+00 -0.75880E+00 -0.75880E+00  0.22584E+01
 -0.75880E+00 -0.75880E+00 -0.75880E+00  0.14911E+01
 -0.66667E+00 -0.66667E+00 -0.66667E+00  0.21620E+01
 -0.66667E+00 -0.66667E+00 -0.66667E+00  0.25166E+01
 -0.66667E+00 -0.66667E+00 -0.66667E+00  0.18683E+01
 -0.66667E+00 -0.66667E+00 -0.66667E+00  0.12532E+01
 -0.66667E+00 -0.66667E+00 -0.66667E+00  0.18740E+01
 -0.66667E+00 -0.66667E+00 -0.66667E+00  0.24656E+01
 -0.66667E+00 -0.66667E+00 -0.66667E+00  0.19936E+01
 -0.66667E+00 -0.66667E+00 -0.66667E+00  0.13031E+01
 -0.66667E+00 -0.66667E+00 -0.66667E+00  0.13957E+01
 -0.66667E+00 -0.66667E+00 -0.66667E+00  0.23602E+01
 -0.66667E+00 -0.66667E+00 -0.66667E+00  0.22756E+01
 -0.66667E+00 -0.66667E+00 -0.66667E+00  0.15172E+01
 -0.66667E+00 -0.66667E+00 -0.66667E+00  0.11287E+01
 -0.66667E+00 -0.66667E+00 -0.66667E+00  0.22367E+01
 -0.66667E+00 -0.66667E+00 -0.66667E+00  0.24743E+01
 -0.66667E+00 -0.66667E+00 -0.66667E+00  0.17312E+01
 ZONE I =           4 ,J=           4 ,K=           4 ,F=POINT
 -0.10000E+01 -0.10000E+01 -0.10000E+01  0.20716E+01
 -0.10000E+01 -0.10000E+01 -0.10000E+01  0.23739E+01
 -0.10000E+01 -0.10000E+01 -0.10000E+01  0.19824E+01
 -0.10000E+01 -0.10000E+01 -0.10000E+01  0.13411E+01
 -0.10000E+01 -0.10000E+01 -0.10000E+01  0.19449E+01
 -0.10000E+01 -0.10000E+01 -0.10000E+01  0.23472E+01
 -0.10000E+01 -0.10000E+01 -0.10000E+01  0.19806E+01
 -0.10000E+01 -0.10000E+01 -0.10000E+01  0.13157E+01
 -0.10000E+01 -0.10000E+01 -0.10000E+01  0.14858E+01
 -0.10000E+01 -0.10000E+01 -0.10000E+01  0.23674E+01
 -0.10000E+01 -0.10000E+01 -0.10000E+01  0.22419E+01
 -0.10000E+01 -0.10000E+01 -0.10000E+01  0.15125E+01
 -0.10000E+01 -0.10000E+01 -0.10000E+01  0.11073E+01
 -0.10000E+01 -0.10000E+01 -0.10000E+01  0.22349E+01
 -0.10000E+01 -0.10000E+01 -0.10000E+01  0.25328E+01
 -0.10000E+01 -0.10000E+01 -0.10000E+01  0.17871E+01
 -0.90787E+00 -0.90787E+00 -0.90787E+00  0.19176E+01
 -0.90787E+00 -0.90787E+00 -0.90787E+00  0.21743E+01
 -0.90787E+00 -0.90787E+00 -0.90787E+00  0.19195E+01
 -0.90787E+00 -0.90787E+00 -0.90787E+00  0.13179E+01
 -0.90787E+00 -0.90787E+00 -0.90787E+00  0.18106E+01
 -0.90787E+00 -0.90787E+00 -0.90787E+00  0.23728E+01
 -0.90787E+00 -0.90787E+00 -0.90787E+00  0.19945E+01
 -0.90787E+00 -0.90787E+00 -0.90787E+00  0.13486E+01
 -0.90787E+00 -0.90787E+00 -0.90787E+00  0.12233E+01
 -0.90787E+00 -0.90787E+00 -0.90787E+00  0.24109E+01
 -0.90787E+00 -0.90787E+00 -0.90787E+00  0.24586E+01
 -0.90787E+00 -0.90787E+00 -0.90787E+00  0.16540E+01
 -0.90787E+00 -0.90787E+00 -0.90787E+00  0.90482E+00
 -0.90787E+00 -0.90787E+00 -0.90787E+00  0.22084E+01
 -0.90787E+00 -0.90787E+00 -0.90787E+00  0.27315E+01
 -0.90787E+00 -0.90787E+00 -0.90787E+00  0.19694E+01
 -0.75880E+00 -0.75880E+00 -0.75880E+00  0.14161E+01
 -0.75880E+00 -0.75880E+00 -0.75880E+00  0.21697E+01
 -0.75880E+00 -0.75880E+00 -0.75880E+00  0.21223E+01
 -0.75880E+00 -0.75880E+00 -0.75880E+00  0.14757E+01
 -0.75880E+00 -0.75880E+00 -0.75880E+00  0.13138E+01
 -0.75880E+00 -0.75880E+00 -0.75880E+00  0.22731E+01
 -0.75880E+00 -0.75880E+00 -0.75880E+00  0.23007E+01
 -0.75880E+00 -0.75880E+00 -0.75880E+00  0.16210E+01
 -0.75880E+00 -0.75880E+00 -0.75880E+00  0.10276E+01
 -0.75880E+00 -0.75880E+00 -0.75880E+00  0.22477E+01
 -0.75880E+00 -0.75880E+00 -0.75880E+00  0.26488E+01
 -0.75880E+00 -0.75880E+00 -0.75880E+00  0.19567E+01
 -0.75880E+00 -0.75880E+00 -0.75880E+00  0.95040E+00
 -0.75880E+00 -0.75880E+00 -0.75880E+00  0.20672E+01
 -0.75880E+00 -0.75880E+00 -0.75880E+00  0.27405E+01
 -0.75880E+00 -0.75880E+00 -0.75880E+00  0.22255E+01
 -0.66667E+00 -0.66667E+00 -0.66667E+00  0.10644E+01
 -0.66667E+00 -0.66667E+00 -0.66667E+00  0.20653E+01
 -0.66667E+00 -0.66667E+00 -0.66667E+00  0.24059E+01
 -0.66667E+00 -0.66667E+00 -0.66667E+00  0.17714E+01
 -0.66667E+00 -0.66667E+00 -0.66667E+00  0.99559E+00
 -0.66667E+00 -0.66667E+00 -0.66667E+00  0.20770E+01
 -0.66667E+00 -0.66667E+00 -0.66667E+00  0.25357E+01
 -0.66667E+00 -0.66667E+00 -0.66667E+00  0.19138E+01
 -0.66667E+00 -0.66667E+00 -0.66667E+00  0.10161E+01
 -0.66667E+00 -0.66667E+00 -0.66667E+00  0.20491E+01
 -0.66667E+00 -0.66667E+00 -0.66667E+00  0.26502E+01
 -0.66667E+00 -0.66667E+00 -0.66667E+00  0.21660E+01
 -0.66667E+00 -0.66667E+00 -0.66667E+00  0.10609E+01
 -0.66667E+00 -0.66667E+00 -0.66667E+00  0.18857E+01
 -0.66667E+00 -0.66667E+00 -0.66667E+00  0.26397E+01
 -0.66667E+00 -0.66667E+00 -0.66667E+00  0.23787E+01
 ZONE I =           4 ,J=           4 ,K=           4 ,F=POINT
 -0.10000E+01 -0.10000E+01 -0.10000E+01  0.10197E+01
 -0.10000E+01 -0.10000E+01 -0.10000E+01  0.20003E+01
 -0.10000E+01 -0.10000E+01 -0.10000E+01  0.26656E+01
 -0.10000E+01 -0.10000E+01 -0.10000E+01  0.19213E+01
 -0.10000E+01 -0.10000E+01 -0.10000E+01  0.84065E+00
 -0.10000E+01 -0.10000E+01 -0.10000E+01  0.18514E+01
 -0.10000E+01 -0.10000E+01 -0.10000E+01  0.27167E+01
 -0.10000E+01 -0.10000E+01 -0.10000E+01  0.21638E+01
 -0.10000E+01 -0.10000E+01 -0.10000E+01  0.94927E+00
 -0.10000E+01 -0.10000E+01 -0.10000E+01  0.19324E+01
 -0.10000E+01 -0.10000E+01 -0.10000E+01  0.26511E+01
 -0.10000E+01 -0.10000E+01 -0.10000E+01  0.22708E+01
 -0.10000E+01 -0.10000E+01 -0.10000E+01  0.10434E+01
 -0.10000E+01 -0.10000E+01 -0.10000E+01  0.18542E+01
 -0.10000E+01 -0.10000E+01 -0.10000E+01  0.26366E+01
 -0.10000E+01 -0.10000E+01 -0.10000E+01  0.24000E+01
 -0.90787E+00 -0.90787E+00 -0.90787E+00  0.79247E+00
 -0.90787E+00 -0.90787E+00 -0.90787E+00  0.17563E+01
 -0.90787E+00 -0.90787E+00 -0.90787E+00  0.27584E+01
 -0.90787E+00 -0.90787E+00 -0.90787E+00  0.22608E+01
 -0.90787E+00 -0.90787E+00 -0.90787E+00  0.85505E+00
 -0.90787E+00 -0.90787E+00 -0.90787E+00  0.18424E+01
 -0.90787E+00 -0.90787E+00 -0.90787E+00  0.26165E+01
 -0.90787E+00 -0.90787E+00 -0.90787E+00  0.21894E+01
 -0.90787E+00 -0.90787E+00 -0.90787E+00  0.10004E+01
 -0.90787E+00 -0.90787E+00 -0.90787E+00  0.18902E+01
 -0.90787E+00 -0.90787E+00 -0.90787E+00  0.25941E+01
 -0.90787E+00 -0.90787E+00 -0.90787E+00  0.22989E+01
 -0.90787E+00 -0.90787E+00 -0.90787E+00  0.11114E+01
 -0.90787E+00 -0.90787E+00 -0.90787E+00  0.17482E+01
 -0.90787E+00 -0.90787E+00 -0.90787E+00  0.26395E+01
 -0.90787E+00 -0.90787E+00 -0.90787E+00  0.25354E+01
 -0.75880E+00 -0.75880E+00 -0.75880E+00  0.86093E+00
 -0.75880E+00 -0.75880E+00 -0.75880E+00  0.18622E+01
 -0.75880E+00 -0.75880E+00 -0.75880E+00  0.27215E+01
 -0.75880E+00 -0.75880E+00 -0.75880E+00  0.23984E+01
 -0.75880E+00 -0.75880E+00 -0.75880E+00  0.10532E+01
 -0.75880E+00 -0.75880E+00 -0.75880E+00  0.17909E+01
 -0.75880E+00 -0.75880E+00 -0.75880E+00  0.25242E+01
 -0.75880E+00 -0.75880E+00 -0.75880E+00  0.23445E+01
 -0.75880E+00 -0.75880E+00 -0.75880E+00  0.12628E+01
 -0.75880E+00 -0.75880E+00 -0.75880E+00  0.16317E+01
 -0.75880E+00 -0.75880E+00 -0.75880E+00  0.24214E+01
 -0.75880E+00 -0.75880E+00 -0.75880E+00  0.24744E+01
 -0.75880E+00 -0.75880E+00 -0.75880E+00  0.14560E+01
 -0.75880E+00 -0.75880E+00 -0.75880E+00  0.15403E+01
 -0.75880E+00 -0.75880E+00 -0.75880E+00  0.23718E+01
 -0.75880E+00 -0.75880E+00 -0.75880E+00  0.26085E+01
 -0.66667E+00 -0.66667E+00 -0.66667E+00  0.10050E+01
 -0.66667E+00 -0.66667E+00 -0.66667E+00  0.18950E+01
 -0.66667E+00 -0.66667E+00 -0.66667E+00  0.27036E+01
 -0.66667E+00 -0.66667E+00 -0.66667E+00  0.24497E+01
 -0.66667E+00 -0.66667E+00 -0.66667E+00  0.12015E+01
 -0.66667E+00 -0.66667E+00 -0.66667E+00  0.16552E+01
 -0.66667E+00 -0.66667E+00 -0.66667E+00  0.25168E+01
 -0.66667E+00 -0.66667E+00 -0.66667E+00  0.25428E+01
 -0.66667E+00 -0.66667E+00 -0.66667E+00  0.15030E+01
 -0.66667E+00 -0.66667E+00 -0.66667E+00  0.14681E+01
 -0.66667E+00 -0.66667E+00 -0.66667E+00  0.22787E+01
 -0.66667E+00 -0.66667E+00 -0.66667E+00  0.25988E+01
 -0.66667E+00 -0.66667E+00 -0.66667E+00  0.17363E+01
 -0.66667E+00 -0.66667E+00 -0.66667E+00  0.14599E+01
 -0.66667E+00 -0.66667E+00 -0.66667E+00  0.21413E+01
 -0.66667E+00 -0.66667E+00 -0.66667E+00  0.25782E+01
 ZONE I =           4 ,J=           4 ,K=           4 ,F=POINT
 -0.10000E+01 -0.10000E+01 -0.10000E+01  0.91548E+00
 -0.10000E+01 -0.10000E+01 -0.10000E+01  0.19038E+01
 -0.10000E+01 -0.10000E+01 -0.10000E+01  0.27593E+01
 -0.10000E+01 -0.10000E+01 -0.10000E+01  0.23443E+01
 -0.10000E+01 -0.10000E+01 -0.10000E+01  0.13091E+01
 -0.10000E+01 -0.10000E+01 -0.10000E+01  0.16583E+01
 -0.10000E+01 -0.10000E+01 -0.10000E+01  0.26028E+01
 -0.10000E+01 -0.10000E+01 -0.10000E+01  0.25804E+01
 -0.10000E+01 -0.10000E+01 -0.10000E+01  0.16663E+01
 -0.10000E+01 -0.10000E+01 -0.10000E+01  0.14953E+01
 -0.10000E+01 -0.10000E+01 -0.10000E+01  0.22740E+01
 -0.10000E+01 -0.10000E+01 -0.10000E+01  0.26444E+01
 -0.10000E+01 -0.10000E+01 -0.10000E+01  0.18310E+01
 -0.10000E+01 -0.10000E+01 -0.10000E+01  0.14743E+01
 -0.10000E+01 -0.10000E+01 -0.10000E+01  0.20765E+01
 -0.10000E+01 -0.10000E+01 -0.10000E+01  0.25537E+01
 -0.90787E+00 -0.90787E+00 -0.90787E+00  0.12029E+01
 -0.90787E+00 -0.90787E+00 -0.90787E+00  0.18674E+01
 -0.90787E+00 -0.90787E+00 -0.90787E+00  0.28714E+01
 -0.90787E+00 -0.90787E+00 -0.90787E+00  0.26206E+01
 -0.90787E+00 -0.90787E+00 -0.90787E+00  0.13346E+01
 -0.90787E+00 -0.90787E+00 -0.90787E+00  0.15215E+01
 -0.90787E+00 -0.90787E+00 -0.90787E+00  0.26209E+01
 -0.90787E+00 -0.90787E+00 -0.90787E+00  0.28839E+01
 -0.90787E+00 -0.90787E+00 -0.90787E+00  0.16493E+01
 -0.90787E+00 -0.90787E+00 -0.90787E+00  0.13442E+01
 -0.90787E+00 -0.90787E+00 -0.90787E+00  0.21534E+01
 -0.90787E+00 -0.90787E+00 -0.90787E+00  0.27414E+01
 -0.90787E+00 -0.90787E+00 -0.90787E+00  0.18860E+01
 -0.90787E+00 -0.90787E+00 -0.90787E+00  0.13758E+01
 -0.90787E+00 -0.90787E+00 -0.90787E+00  0.19410E+01
 -0.90787E+00 -0.90787E+00 -0.90787E+00  0.25213E+01
 -0.75880E+00 -0.75880E+00 -0.75880E+00  0.16306E+01
 -0.75880E+00 -0.75880E+00 -0.75880E+00  0.15990E+01
 -0.75880E+00 -0.75880E+00 -0.75880E+00  0.24409E+01
 -0.75880E+00 -0.75880E+00 -0.75880E+00  0.27021E+01
 -0.75880E+00 -0.75880E+00 -0.75880E+00  0.16445E+01
 -0.75880E+00 -0.75880E+00 -0.75880E+00  0.14731E+01
 -0.75880E+00 -0.75880E+00 -0.75880E+00  0.22778E+01
 -0.75880E+00 -0.75880E+00 -0.75880E+00  0.27601E+01
 -0.75880E+00 -0.75880E+00 -0.75880E+00  0.18940E+01
 -0.75880E+00 -0.75880E+00 -0.75880E+00  0.14333E+01
 -0.75880E+00 -0.75880E+00 -0.75880E+00  0.19919E+01
 -0.75880E+00 -0.75880E+00 -0.75880E+00  0.25934E+01
 -0.75880E+00 -0.75880E+00 -0.75880E+00  0.21321E+01
 -0.75880E+00 -0.75880E+00 -0.75880E+00  0.15009E+01
 -0.75880E+00 -0.75880E+00 -0.75880E+00  0.18497E+01
 -0.75880E+00 -0.75880E+00 -0.75880E+00  0.24284E+01
 -0.66667E+00 -0.66667E+00 -0.66667E+00  0.18217E+01
 -0.66667E+00 -0.66667E+00 -0.66667E+00  0.14191E+01
 -0.66667E+00 -0.66667E+00 -0.66667E+00  0.20775E+01
 -0.66667E+00 -0.66667E+00 -0.66667E+00  0.25986E+01
 -0.66667E+00 -0.66667E+00 -0.66667E+00  0.19521E+01
 -0.66667E+00 -0.66667E+00 -0.66667E+00  0.15023E+01
 -0.66667E+00 -0.66667E+00 -0.66667E+00  0.20105E+01
 -0.66667E+00 -0.66667E+00 -0.66667E+00  0.25175E+01
 -0.66667E+00 -0.66667E+00 -0.66667E+00  0.21882E+01
 -0.66667E+00 -0.66667E+00 -0.66667E+00  0.16105E+01
 -0.66667E+00 -0.66667E+00 -0.66667E+00  0.18995E+01
 -0.66667E+00 -0.66667E+00 -0.66667E+00  0.24136E+01
 -0.66667E+00 -0.66667E+00 -0.66667E+00  0.23598E+01
 -0.66667E+00 -0.66667E+00 -0.66667E+00  0.16940E+01
 -0.66667E+00 -0.66667E+00 -0.66667E+00  0.18173E+01
 -0.66667E+00 -0.66667E+00 -0.66667E+00  0.23306E+01
 ZONE I =           4 ,J=           4 ,K=           4 ,F=POINT
 -0.10000E+01 -0.10000E+01 -0.10000E+01  0.17410E+01
 -0.10000E+01 -0.10000E+01 -0.10000E+01  0.12991E+01
 -0.10000E+01 -0.10000E+01 -0.10000E+01  0.19188E+01
 -0.10000E+01 -0.10000E+01 -0.10000E+01  0.25775E+01
 -0.10000E+01 -0.10000E+01 -0.10000E+01  0.19405E+01
 -0.10000E+01 -0.10000E+01 -0.10000E+01  0.14494E+01
 -0.10000E+01 -0.10000E+01 -0.10000E+01  0.18941E+01
 -0.10000E+01 -0.10000E+01 -0.10000E+01  0.23569E+01
 -0.10000E+01 -0.10000E+01 -0.10000E+01  0.22446E+01
 -0.10000E+01 -0.10000E+01 -0.10000E+01  0.16725E+01
 -0.10000E+01 -0.10000E+01 -0.10000E+01  0.19048E+01
 -0.10000E+01 -0.10000E+01 -0.10000E+01  0.23017E+01
 -0.10000E+01 -0.10000E+01 -0.10000E+01  0.24164E+01
 -0.10000E+01 -0.10000E+01 -0.10000E+01  0.17864E+01
 -0.10000E+01 -0.10000E+01 -0.10000E+01  0.18647E+01
 -0.10000E+01 -0.10000E+01 -0.10000E+01  0.23118E+01
 -0.90787E+00 -0.90787E+00 -0.90787E+00  0.17802E+01
 -0.90787E+00 -0.90787E+00 -0.90787E+00  0.12005E+01
 -0.90787E+00 -0.90787E+00 -0.90787E+00  0.18150E+01
 -0.90787E+00 -0.90787E+00 -0.90787E+00  0.24265E+01
 -0.90787E+00 -0.90787E+00 -0.90787E+00  0.22820E+01
 -0.90787E+00 -0.90787E+00 -0.90787E+00  0.15244E+01
 -0.90787E+00 -0.90787E+00 -0.90787E+00  0.18239E+01
 -0.90787E+00 -0.90787E+00 -0.90787E+00  0.23020E+01
 -0.90787E+00 -0.90787E+00 -0.90787E+00  0.26411E+01
 -0.90787E+00 -0.90787E+00 -0.90787E+00  0.18424E+01
 -0.90787E+00 -0.90787E+00 -0.90787E+00  0.18109E+01
 -0.90787E+00 -0.90787E+00 -0.90787E+00  0.22468E+01
 -0.90787E+00 -0.90787E+00 -0.90787E+00  0.26547E+01
 -0.90787E+00 -0.90787E+00 -0.90787E+00  0.19339E+01
 -0.90787E+00 -0.90787E+00 -0.90787E+00  0.17688E+01
 -0.90787E+00 -0.90787E+00 -0.90787E+00  0.22001E+01
 -0.75880E+00 -0.75880E+00 -0.75880E+00  0.21584E+01
 -0.75880E+00 -0.75880E+00 -0.75880E+00  0.14921E+01
 -0.75880E+00 -0.75880E+00 -0.75880E+00  0.18497E+01
 -0.75880E+00 -0.75880E+00 -0.75880E+00  0.23812E+01
 -0.75880E+00 -0.75880E+00 -0.75880E+00  0.25268E+01
 -0.75880E+00 -0.75880E+00 -0.75880E+00  0.16956E+01
 -0.75880E+00 -0.75880E+00 -0.75880E+00  0.17672E+01
 -0.75880E+00 -0.75880E+00 -0.75880E+00  0.22822E+01
 -0.75880E+00 -0.75880E+00 -0.75880E+00  0.27853E+01
 -0.75880E+00 -0.75880E+00 -0.75880E+00  0.19463E+01
 -0.75880E+00 -0.75880E+00 -0.75880E+00  0.16492E+01
 -0.75880E+00 -0.75880E+00 -0.75880E+00  0.20542E+01
 -0.75880E+00 -0.75880E+00 -0.75880E+00  0.27750E+01
 -0.75880E+00 -0.75880E+00 -0.75880E+00  0.20657E+01
 -0.75880E+00 -0.75880E+00 -0.75880E+00  0.16171E+01
 -0.75880E+00 -0.75880E+00 -0.75880E+00  0.18855E+01
 -0.66667E+00 -0.66667E+00 -0.66667E+00  0.24689E+01
 -0.66667E+00 -0.66667E+00 -0.66667E+00  0.17913E+01
 -0.66667E+00 -0.66667E+00 -0.66667E+00  0.18739E+01
 -0.66667E+00 -0.66667E+00 -0.66667E+00  0.23688E+01
 -0.66667E+00 -0.66667E+00 -0.66667E+00  0.25561E+01
 -0.66667E+00 -0.66667E+00 -0.66667E+00  0.18258E+01
 -0.66667E+00 -0.66667E+00 -0.66667E+00  0.17442E+01
 -0.66667E+00 -0.66667E+00 -0.66667E+00  0.22286E+01
 -0.66667E+00 -0.66667E+00 -0.66667E+00  0.26843E+01
 -0.66667E+00 -0.66667E+00 -0.66667E+00  0.19816E+01
 -0.66667E+00 -0.66667E+00 -0.66667E+00  0.15938E+01
 -0.66667E+00 -0.66667E+00 -0.66667E+00  0.18828E+01
 -0.66667E+00 -0.66667E+00 -0.66667E+00  0.27354E+01
 -0.66667E+00 -0.66667E+00 -0.66667E+00  0.21264E+01
 -0.66667E+00 -0.66667E+00 -0.66667E+00  0.15703E+01
 -0.66667E+00 -0.66667E+00 -0.66667E+00  0.16705E+01
 ZONE I =           4 ,J=           4 ,K=           4 ,F=POINT
 -0.10000E+01 -0.10000E+01 -0.10000E+01  0.27123E+01
 -0.10000E+01 -0.10000E+01 -0.10000E+01  0.20645E+01
 -0.10000E+01 -0.10000E+01 -0.10000E+01  0.19770E+01
 -0.10000E+01 -0.10000E+01 -0.10000E+01  0.23933E+01
 -0.10000E+01 -0.10000E+01 -0.10000E+01  0.24080E+01
 -0.10000E+01 -0.10000E+01 -0.10000E+01  0.18429E+01
 -0.10000E+01 -0.10000E+01 -0.10000E+01  0.18029E+01
 -0.10000E+01 -0.10000E+01 -0.10000E+01  0.23039E+01
 -0.10000E+01 -0.10000E+01 -0.10000E+01  0.24246E+01
 -0.10000E+01 -0.10000E+01 -0.10000E+01  0.18245E+01
 -0.10000E+01 -0.10000E+01 -0.10000E+01  0.15868E+01
 -0.10000E+01 -0.10000E+01 -0.10000E+01  0.19083E+01
 -0.10000E+01 -0.10000E+01 -0.10000E+01  0.26066E+01
 -0.10000E+01 -0.10000E+01 -0.10000E+01  0.19896E+01
 -0.10000E+01 -0.10000E+01 -0.10000E+01  0.15454E+01
 -0.10000E+01 -0.10000E+01 -0.10000E+01  0.16605E+01
 -0.90787E+00 -0.90787E+00 -0.90787E+00  0.26288E+01
 -0.90787E+00 -0.90787E+00 -0.90787E+00  0.20236E+01
 -0.90787E+00 -0.90787E+00 -0.90787E+00  0.18466E+01
 -0.90787E+00 -0.90787E+00 -0.90787E+00  0.23189E+01
 -0.90787E+00 -0.90787E+00 -0.90787E+00  0.24532E+01
 -0.90787E+00 -0.90787E+00 -0.90787E+00  0.18817E+01
 -0.90787E+00 -0.90787E+00 -0.90787E+00  0.16937E+01
 -0.90787E+00 -0.90787E+00 -0.90787E+00  0.20995E+01
 -0.90787E+00 -0.90787E+00 -0.90787E+00  0.25693E+01
 -0.90787E+00 -0.90787E+00 -0.90787E+00  0.20106E+01
 -0.90787E+00 -0.90787E+00 -0.90787E+00  0.15607E+01
 -0.90787E+00 -0.90787E+00 -0.90787E+00  0.16766E+01
 -0.90787E+00 -0.90787E+00 -0.90787E+00  0.27098E+01
 -0.90787E+00 -0.90787E+00 -0.90787E+00  0.22083E+01
 -0.90787E+00 -0.90787E+00 -0.90787E+00  0.15530E+01
 -0.90787E+00 -0.90787E+00 -0.90787E+00  0.14855E+01
 -0.75880E+00 -0.75880E+00 -0.75880E+00  0.26453E+01
 -0.75880E+00 -0.75880E+00 -0.75880E+00  0.20207E+01
 -0.75880E+00 -0.75880E+00 -0.75880E+00  0.16372E+01
 -0.75880E+00 -0.75880E+00 -0.75880E+00  0.19256E+01
 -0.75880E+00 -0.75880E+00 -0.75880E+00  0.26825E+01
 -0.75880E+00 -0.75880E+00 -0.75880E+00  0.21290E+01
 -0.75880E+00 -0.75880E+00 -0.75880E+00  0.16147E+01
 -0.75880E+00 -0.75880E+00 -0.75880E+00  0.17118E+01
 -0.75880E+00 -0.75880E+00 -0.75880E+00  0.26336E+01
 -0.75880E+00 -0.75880E+00 -0.75880E+00  0.23530E+01
 -0.75880E+00 -0.75880E+00 -0.75880E+00  0.16430E+01
 -0.75880E+00 -0.75880E+00 -0.75880E+00  0.14149E+01
 -0.75880E+00 -0.75880E+00 -0.75880E+00  0.24962E+01
 -0.75880E+00 -0.75880E+00 -0.75880E+00  0.24708E+01
 -0.75880E+00 -0.75880E+00 -0.75880E+00  0.17110E+01
 -0.75880E+00 -0.75880E+00 -0.75880E+00  0.13063E+01
 -0.66667E+00 -0.66667E+00 -0.66667E+00  0.27246E+01
 -0.66667E+00 -0.66667E+00 -0.66667E+00  0.20957E+01
 -0.66667E+00 -0.66667E+00 -0.66667E+00  0.15603E+01
 -0.66667E+00 -0.66667E+00 -0.66667E+00  0.16548E+01
 -0.66667E+00 -0.66667E+00 -0.66667E+00  0.27835E+01
 -0.66667E+00 -0.66667E+00 -0.66667E+00  0.23191E+01
 -0.66667E+00 -0.66667E+00 -0.66667E+00  0.16185E+01
 -0.66667E+00 -0.66667E+00 -0.66667E+00  0.15202E+01
 -0.66667E+00 -0.66667E+00 -0.66667E+00  0.24995E+01
 -0.66667E+00 -0.66667E+00 -0.66667E+00  0.25033E+01
 -0.66667E+00 -0.66667E+00 -0.66667E+00  0.17503E+01
 -0.66667E+00 -0.66667E+00 -0.66667E+00  0.13255E+01
 -0.66667E+00 -0.66667E+00 -0.66667E+00  0.21822E+01
 -0.66667E+00 -0.66667E+00 -0.66667E+00  0.25195E+01
 -0.66667E+00 -0.66667E+00 -0.66667E+00  0.18655E+01
 -0.66667E+00 -0.66667E+00 -0.66667E+00  0.12613E+01
 ZONE I =           4 ,J=           4 ,K=           4 ,F=POINT
  0.00000E+00  0.00000E+00  0.00000E+00  0.00000E+00
  0.00000E+00  0.00000E+00  0.00000E+00  0.00000E+00
  0.00000E+00  0.00000E+00  0.00000E+00  0.00000E+00
  0.00000E+00  0.00000E+00  0.00000E+00  0.00000E+00
  0.00000E+00  0.00000E+00  0.00000E+00  0.00000E+00
  0.00000E+00  0.00000E+00  0.00000E+00  0.00000E+00
  0.00000E+00  0.00000E+00  0.00000E+00  0.00000E+00
  0.00000E+00  0.00000E+00  0.00000E+00  0.00000E+00
  0.00000E+00  0.00000E+00  0.00000E+00  0.00000E+00
  0.00000E+00  0.00000E+00  0.00000E+00  0.00000E+00
  0.00000E+00  0.00000E+00  0.00000E+00  0.00000E+00
  0.00000E+00  0.00000E+00  0.00000E+00  0.00000E+00
  0.00000E+00  0.00000E+00  0.00000E+00  0.00000E+00
  0.00000E+00  0.00000E+00  0.00000E+00  0.00000E+00
  0.00000E+00  0.00000E+00  0.00000E+00  0.00000E+00
  0.00000E+00  0.00000E+00  0.00000E+00  0.00000E+00
  0.00000E+00  0.00000E+00  0.00000E+00  0.00000E+00
  0.00000E+00  0.00000E+00  0.00000E+00  0.00000E+00
  0.00000E+00  0.00000E+00  0.00000E+00  0.00000E+00
  0.00000E+00  0.00000E+00  0.00000E+00  0.00000E+00
  0.00000E+00  0.00000E+00  0.00000E+00  0.00000E+00
  0.00000E+00  0.00000E+00  0.00000E+00  0.00000E+00
  0.00000E+00  0.00000E+00  0.00000E+00  0.00000E+00
  0.00000E+00  0.00000E+00  0.00000E+00  0.00000E+00
  0.00000E+00  0.00000E+00  0.00000E+00  0.00000E+00
  0.00000E+00  0.00000E+00  0.00000E+00  0.00000E+00
  0.00000E+00  0.00000E+00  0.00000E+00  0.00000E+00
  0.00000E+00  0.00000E+00  0.00000E+00  0.00000E+00
  0.00000E+00  0.00000E+00  0.00000E+00  0.00000E+00
  0.00000E+00  0.00000E+00  0.00000E+00  0.00000E+00
  0.00000E+00  0.00000E+00  0.00000E+00  0.00000E+00
  0.00000E+00  0.00000E+00  0.00000E+00  0.00000E+00
  0.00000E+00  0.00000E+00  0.00000E+00  0.00000E+00
  0.00000E+00  0.00000E+00  0.00000E+00  0.00000E+00
  0.00000E+00  0.00000E+00  0.00000E+00  0.00000E+00
  0.00000E+00  0.00000E+00  0.00000E+00  0.00000E+00
  0.00000E+00  0.00000E+00  0.00000E+00  0.00000E+00
  0.00000E+00  0.00000E+00  0.00000E+00  0.00000E+00
  0.00000E+00  0.00000E+00  0.00000E+00  0.00000E+00
  0.00000E+00  0.00000E+00  0.00000E+00  0.00000E+00
  0.00000E+00  0.00000E+00  0.00000E+00  0.00000E+00
  0.00000E+00  0.00000E+00  0.00000E+00  0.00000E+00
  0.00000E+00  0.00000E+00  0.00000E+00  0.00000E+00
  0.00000E+00  0.00000E+00  0.00000E+00  0.00000E+00
  0.00000E+00  0.00000E+00  0.00000E+00  0.00000E+00
  0.00000E+00  0.00000E+00  0.00000E+00  0.00000E+00
  0.00000E+00  0.00000E+00  0.00000E+00  0.00000E+00
  0.00000E+00  0.00000E+00  0.00000E+00  0.00000E+00
  0.00000E+00  0.00000E+00  0.00000E+00  0.00000E+00
  0.00000E+00  0.00000E+00  0.00000E+00  0.00000E+00
  0.00000E+00  0.00000E+00  0.00000E+00  0.00000E+00
  0.00000E+00  0.00000E+00  0.00000E+00  0.00000E+00
  0.00000E+00  0.00000E+00  0.00000E+00  0.00000E+00
  0.00000E+00  0.00000E+00  0.00000E+00  0.00000E+00
  0.00000E+00  0.00000E+00  0.00000E+00  0.00000E+00
  0.00000E+00  0.00000E+00  0.00000E+00  0.00000E+00
  0.00000E+00  0.00000E+00  0.00000E+00  0.00000E+00
  0.00000E+00  0.00000E+00  0.00000E+00  0.00000E+00
  0.00000E+00  0.00000E+00  0.00000E+00  0.00000E+00
  0.00000E+00  0.00000E+00  0.00000E+00  0.00000E+00
  0.00000E+00  0.00000E+00  0.00000E+00  0.00000E+00
  0.00000E+00  0.00000E+00  0.00000E+00  0.00000E+00
  0.00000E+00  0.00000E+00  0.00000E+00  0.00000E+00
  0.00000E+00  0.00000E+00  0.00000E+00  0.00000E+00
 ZONE I =           4 ,J=           4 ,K=           4 ,F=POINT
 -0.10000E+01 -0.10000E+01 -0.10000E+01  0.17410E+01
 -0.10000E+01 -0.10000E+01 -0.10000E+01  0.12991E+01
 -0.10000E+01 -0.10000E+01 -0.10000E+01  0.19188E+01
 -0.10000E+01 -0.10000E+01 -0.10000E+01  0.25775E+01
 -0.10000E+01 -0.10000E+01 -0.10000E+01  0.19405E+01
 -0.10000E+01 -0.10000E+01 -0.10000E+01  0.14494E+01
 -0.10000E+01 -0.10000E+01 -0.10000E+01  0.18941E+01
 -0.10000E+01 -0.10000E+01 -0.10000E+01  0.23569E+01
 -0.10000E+01 -0.10000E+01 -0.10000E+01  0.22446E+01
 -0.10000E+01 -0.10000E+01 -0.10000E+01  0.16725E+01
 -0.10000E+01 -0.10000E+01 -0.10000E+01  0.19048E+01
 -0.10000E+01 -0.10000E+01 -0.10000E+01  0.23017E+01
 -0.10000E+01 -0.10000E+01 -0.10000E+01  0.24164E+01
 -0.10000E+01 -0.10000E+01 -0.10000E+01  0.17864E+01
 -0.10000E+01 -0.10000E+01 -0.10000E+01  0.18647E+01
 -0.10000E+01 -0.10000E+01 -0.10000E+01  0.23118E+01
 -0.90787E+00 -0.90787E+00 -0.90787E+00  0.17802E+01
 -0.90787E+00 -0.90787E+00 -0.90787E+00  0.12005E+01
 -0.90787E+00 -0.90787E+00 -0.90787E+00  0.18150E+01
 -0.90787E+00 -0.90787E+00 -0.90787E+00  0.24265E+01
 -0.90787E+00 -0.90787E+00 -0.90787E+00  0.22820E+01
 -0.90787E+00 -0.90787E+00 -0.90787E+00  0.15244E+01
 -0.90787E+00 -0.90787E+00 -0.90787E+00  0.18239E+01
 -0.90787E+00 -0.90787E+00 -0.90787E+00  0.23020E+01
 -0.90787E+00 -0.90787E+00 -0.90787E+00  0.26411E+01
 -0.90787E+00 -0.90787E+00 -0.90787E+00  0.18424E+01
 -0.90787E+00 -0.90787E+00 -0.90787E+00  0.18109E+01
 -0.90787E+00 -0.90787E+00 -0.90787E+00  0.22468E+01
 -0.90787E+00 -0.90787E+00 -0.90787E+00  0.26547E+01
 -0.90787E+00 -0.90787E+00 -0.90787E+00  0.19339E+01
 -0.90787E+00 -0.90787E+00 -0.90787E+00  0.17688E+01
 -0.90787E+00 -0.90787E+00 -0.90787E+00  0.22001E+01
 -0.75880E+00 -0.75880E+00 -0.75880E+00  0.21584E+01
 -0.75880E+00 -0.75880E+00 -0.75880E+00  0.14921E+01
 -0.75880E+00 -0.75880E+00 -0.75880E+00  0.18497E+01
 -0.75880E+00 -0.75880E+00 -0.75880E+00  0.23812E+01
 -0.75880E+00 -0.75880E+00 -0.75880E+00  0.25268E+01
 -0.75880E+00 -0.75880E+00 -0.75880E+00  0.16956E+01
 -0.75880E+00 -0.75880E+00 -0.75880E+00  0.17672E+01
 -0.75880E+00 -0.75880E+00 -0.75880E+00  0.22822E+01
 -0.75880E+00 -0.75880E+00 -0.75880E+00  0.27853E+01
 -0.75880E+00 -0.75880E+00 -0.75880E+00  0.19463E+01
 -0.75880E+00 -0.75880E+00 -0.75880E+00  0.16492E+01
 -0.75880E+00 -0.75880E+00 -0.75880E+00  0.20542E+01
 -0.75880E+00 -0.75880E+00 -0.75880E+00  0.27750E+01
 -0.75880E+00 -0.75880E+00 -0.75880E+00  0.20657E+01
 -0.75880E+00 -0.75880E+00 -0.75880E+00  0.16171E+01
 -0.75880E+00 -0.75880E+00 -0.75880E+00  0.18855E+01
 -0.66667E+00 -0.66667E+00 -0.66667E+00  0.24689E+01
 -0.66667E+00 -0.66667E+00 -0.66667E+00  0.17913E+01
 -0.66667E+00 -0.66667E+00 -0.66667E+00  0.18739E+01
 -0.66667E+00 -0.66667E+00 -0.66667E+00  0.23688E+01
 -0.66667E+00 -0.66667E+00 -0.66667E+00  0.25561E+01
 -0.66667E+00 -0.66667E+00 -0.66667E+00  0.18258E+01
 -0.66667E+00 -0.66667E+00 -0.66667E+00  0.17442E+01
 -0.66667E+00 -0.66667E+00 -0.66667E+00  0.22286E+01
 -0.66667E+00 -0.66667E+00 -0.66667E+00  0.26843E+01
 -0.66667E+00 -0.66667E+00 -0.66667E+00  0.19816E+01
 -0.66667E+00 -0.66667E+00 -0.66667E+00  0.15938E+01
 -0.66667E+00 -0.66667E+00 -0.66667E+00  0.18828E+01
 -0.66667E+00 -0.66667E+00 -0.66667E+00  0.27354E+01
 -0.66667E+00 -0.66667E+00 -0.66667E+00  0.21264E+01
 -0.66667E+00 -0.66667E+00 -0.66667E+00  0.15703E+01
 -0.66667E+00 -0.66667E+00 -0.66667E+00  0.16705E+01
 ZONE I =           4 ,J=           4 ,K=           4 ,F=POINT
 -0.10000E+01 -0.10000E+01 -0.10000E+01  0.17410E+01
 -0.10000E+01 -0.10000E+01 -0.10000E+01  0.12991E+01
 -0.10000E+01 -0.10000E+01 -0.10000E+01  0.19188E+01
 -0.10000E+01 -0.10000E+01 -0.10000E+01  0.25775E+01
 -0.10000E+01 -0.10000E+01 -0.10000E+01  0.19405E+01
 -0.10000E+01 -0.10000E+01 -0.10000E+01  0.14494E+01
 -0.10000E+01 -0.10000E+01 -0.10000E+01  0.18941E+01
 -0.10000E+01 -0.10000E+01 -0.10000E+01  0.23569E+01
 -0.10000E+01 -0.10000E+01 -0.10000E+01  0.22446E+01
 -0.10000E+01 -0.10000E+01 -0.10000E+01  0.16725E+01
 -0.10000E+01 -0.10000E+01 -0.10000E+01  0.19048E+01
 -0.10000E+01 -0.10000E+01 -0.10000E+01  0.23017E+01
 -0.10000E+01 -0.10000E+01 -0.10000E+01  0.24164E+01
 -0.10000E+01 -0.10000E+01 -0.10000E+01  0.17864E+01
 -0.10000E+01 -0.10000E+01 -0.10000E+01  0.18647E+01
 -0.10000E+01 -0.10000E+01 -0.10000E+01  0.23118E+01
 -0.90787E+00 -0.90787E+00 -0.90787E+00  0.17802E+01
 -0.90787E+00 -0.90787E+00 -0.90787E+00  0.12005E+01
 -0.90787E+00 -0.90787E+00 -0.90787E+00  0.18150E+01
 -0.90787E+00 -0.90787E+00 -0.90787E+00  0.24265E+01
 -0.90787E+00 -0.90787E+00 -0.90787E+00  0.22820E+01
 -0.90787E+00 -0.90787E+00 -0.90787E+00  0.15244E+01
 -0.90787E+00 -0.90787E+00 -0.90787E+00  0.18239E+01
 -0.90787E+00 -0.90787E+00 -0.90787E+00  0.23020E+01
 -0.90787E+00 -0.90787E+00 -0.90787E+00  0.26411E+01
 -0.90787E+00 -0.90787E+00 -0.90787E+00  0.18424E+01
 -0.90787E+00 -0.90787E+00 -0.90787E+00  0.18109E+01
 -0.90787E+00 -0.90787E+00 -0.90787E+00  0.22468E+01
 -0.90787E+00 -0.90787E+00 -0.90787E+00  0.26547E+01
 -0.90787E+00 -0.90787E+00 -0.90787E+00  0.19339E+01
 -0.90787E+00 -0.90787E+00 -0.90787E+00  0.17688E+01
 -0.90787E+00 -0.90787E+00 -0.90787E+00  0.22001E+01
 -0.75880E+00 -0.75880E+00 -0.75880E+00  0.21584E+01
 -0.75880E+00 -0.75880E+00 -0.75880E+00  0.14921E+01
 -0.75880E+00 -0.75880E+00 -0.75880E+00  0.18497E+01
 -0.75880E+00 -0.75880E+00 -0.75880E+00  0.23812E+01
 -0.75880E+00 -0.75880E+00 -0.75880E+00  0.25268E+01
 -0.75880E+00 -0.75880E+00 -0.75880E+00  0.16956E+01
 -0.75880E+00 -0.75880E+00 -0.75880E+00  0.17672E+01
 -0.75880E+00 -0.75880E+00 -0.75880E+00  0.22822E+01
 -0.75880E+00 -0.75880E+00 -0.75880E+00  0.27853E+01
 -0.75880E+00 -0.75880E+00 -0.75880E+00  0.19463E+01